
     Program PWSCF v.7.1 starts on 22Mar2025 at 20:17:58 

     This program is part of the open-source Quantum ESPRESSO suite
     for quantum simulation of materials; please cite
         "P. Giannozzi et al., J. Phys.:Condens. Matter 21 395502 (2009);
         "P. Giannozzi et al., J. Phys.:Condens. Matter 29 465901 (2017);
         "P. Giannozzi et al., J. Chem. Phys. 152 154105 (2020);
          URL http://www.quantum-espresso.org", 
     in publications or presentations arising from this work. More details at
     http://www.quantum-espresso.org/quote

     Parallel version (MPI), running on    24 processors

     MPI processes distributed on     1 nodes
     241936 MiB available memory on the printing compute node when the environment starts
 
     Reading input from graphene.sc.in
     Message from routine read_cards :
     DEPRECATED: no units specified in ATOMIC_POSITIONS card
     Message from routine read_cards :
     ATOMIC_POSITIONS: units set to alat

     Current dimensions of program PWSCF are:
     Max number of different atomic species (ntypx) = 10
     Max number of k-points (npk) =  40000
     Max angular momentum in pseudopotentials (lmaxx) =  4
 
     R & G space division:  proc/nbgrp/npool/nimage =      24
     Subspace diagonalization in iterative solution of the eigenvalue problem:
     a serial algorithm will be used

 
     Parallelization info
     --------------------
     sticks:   dense  smooth     PW     G-vecs:    dense   smooth      PW
     Min          19      19      6                 1737     1737     288
     Max          20      20      7                 1758     1758     300
     Sum         475     475    151                42043    42043    6979
 
     Using Slab Decomposition
 


     bravais-lattice index     =            4
     lattice parameter (alat)  =       4.6510  a.u.
     unit-cell volume          =     435.6519 (a.u.)^3
     number of atoms/cell      =            2
     number of atomic types    =            1
     number of electrons       =         8.00
     number of Kohn-Sham states=           20
     kinetic-energy cutoff     =      80.0000  Ry
     charge density cutoff     =     320.0000  Ry
     scf convergence threshold =      1.0E-10
     mixing beta               =       0.4000
     number of iterations used =            8  plain     mixing
     Exchange-correlation= SLA  PW   NOGX NOGC
                           (   1   4   0   0   0   0   0)

     celldm(1)=   4.651000  celldm(2)=   0.000000  celldm(3)=   5.000000
     celldm(4)=   0.000000  celldm(5)=   0.000000  celldm(6)=   0.000000

     crystal axes: (cart. coord. in units of alat)
               a(1) = (   1.000000   0.000000   0.000000 )  
               a(2) = (  -0.500000   0.866025   0.000000 )  
               a(3) = (   0.000000   0.000000   5.000000 )  

     reciprocal axes: (cart. coord. in units 2 pi/alat)
               b(1) = (  1.000000  0.577350  0.000000 )  
               b(2) = (  0.000000  1.154701  0.000000 )  
               b(3) = (  0.000000  0.000000  0.200000 )  


     PseudoPot. # 1 for C  read from file:
     ./C.UPF
     MD5 check sum: c9bd9c91d9c48f3c1b9c51e450525728
     Pseudo is Norm-conserving + core correction, Zval =  4.0
     Generated using ONCVPSP code by D. R. Hamann
     Using radial grid of 1234 points,  4 beta functions with: 
                l(1) =   0
                l(2) =   0
                l(3) =   1
                l(4) =   1

     atomic species   valence    mass     pseudopotential
        C              4.00    12.01070     C ( 1.00)

     24 Sym. Ops., with inversion, found



   Cartesian axes

     site n.     atom                  positions (alat units)
         1           C   tau(   1) = (   0.5000000  -0.2886751   0.0000000  )
         2           C   tau(   2) = (   0.5000000   0.2886751   0.0000000  )

     number of k points=    44  Gaussian smearing, width (Ry)=  0.0200
                       cart. coord. in units 2pi/alat
        k(    1) = (   0.0000000   0.0000000   0.0000000), wk =   0.0050000
        k(    2) = (   0.0000000   0.0577350   0.0000000), wk =   0.0300000
        k(    3) = (   0.0000000   0.1154701   0.0000000), wk =   0.0300000
        k(    4) = (   0.0000000   0.1732051   0.0000000), wk =   0.0300000
        k(    5) = (   0.0000000   0.2309401   0.0000000), wk =   0.0300000
        k(    6) = (   0.0000000   0.2886751   0.0000000), wk =   0.0300000
        k(    7) = (   0.0000000   0.3464102   0.0000000), wk =   0.0300000
        k(    8) = (   0.0000000   0.4041452   0.0000000), wk =   0.0300000
        k(    9) = (   0.0000000   0.4618802   0.0000000), wk =   0.0300000
        k(   10) = (   0.0000000   0.5196152   0.0000000), wk =   0.0300000
        k(   11) = (   0.0000000  -0.5773503   0.0000000), wk =   0.0150000
        k(   12) = (   0.0500000   0.0866025   0.0000000), wk =   0.0300000
        k(   13) = (   0.0500000   0.1443376   0.0000000), wk =   0.0600000
        k(   14) = (   0.0500000   0.2020726   0.0000000), wk =   0.0600000
        k(   15) = (   0.0500000   0.2598076   0.0000000), wk =   0.0600000
        k(   16) = (   0.0500000   0.3175426   0.0000000), wk =   0.0600000
        k(   17) = (   0.0500000   0.3752777   0.0000000), wk =   0.0600000
        k(   18) = (   0.0500000   0.4330127   0.0000000), wk =   0.0600000
        k(   19) = (   0.0500000   0.4907477   0.0000000), wk =   0.0600000
        k(   20) = (   0.0500000   0.5484828   0.0000000), wk =   0.0600000
        k(   21) = (   0.1000000   0.1732051   0.0000000), wk =   0.0300000
        k(   22) = (   0.1000000   0.2309401   0.0000000), wk =   0.0600000
        k(   23) = (   0.1000000   0.2886751   0.0000000), wk =   0.0600000
        k(   24) = (   0.1000000   0.3464102   0.0000000), wk =   0.0600000
        k(   25) = (   0.1000000   0.4041452   0.0000000), wk =   0.0600000
        k(   26) = (   0.1000000   0.4618802   0.0000000), wk =   0.0600000
        k(   27) = (   0.1000000   0.5196152   0.0000000), wk =   0.0600000
        k(   28) = (   0.1000000   0.5773503   0.0000000), wk =   0.0300000
        k(   29) = (   0.1500000   0.2598076   0.0000000), wk =   0.0300000
        k(   30) = (   0.1500000   0.3175426   0.0000000), wk =   0.0600000
        k(   31) = (   0.1500000   0.3752777   0.0000000), wk =   0.0600000
        k(   32) = (   0.1500000   0.4330127   0.0000000), wk =   0.0600000
        k(   33) = (   0.1500000   0.4907477   0.0000000), wk =   0.0600000
        k(   34) = (   0.1500000   0.5484828   0.0000000), wk =   0.0600000
        k(   35) = (   0.2000000   0.3464102   0.0000000), wk =   0.0300000
        k(   36) = (   0.2000000   0.4041452   0.0000000), wk =   0.0600000
        k(   37) = (   0.2000000   0.4618802   0.0000000), wk =   0.0600000
        k(   38) = (   0.2000000   0.5196152   0.0000000), wk =   0.0600000
        k(   39) = (   0.2000000   0.5773503   0.0000000), wk =   0.0300000
        k(   40) = (   0.2500000   0.4330127   0.0000000), wk =   0.0300000
        k(   41) = (   0.2500000   0.4907477   0.0000000), wk =   0.0600000
        k(   42) = (   0.2500000   0.5484828   0.0000000), wk =   0.0600000
        k(   43) = (   0.3000000   0.5196152   0.0000000), wk =   0.0300000
        k(   44) = (   0.3000000   0.5773503   0.0000000), wk =   0.0300000

     Dense  grid:    42043 G-vectors     FFT dimensions: (  27,  27, 135)

     Estimated max dynamical RAM per process >       4.85 MB

     Estimated total dynamical RAM >     116.35 MB

     Initial potential from superposition of free atoms

     starting charge       7.9999, renormalised to       8.0000

     negative rho (up, down):  1.000E-05 0.000E+00
     Starting wfcs are    8 randomized atomic wfcs +   12 random wfcs

     total cpu time spent up to now is        0.4 secs

     Self-consistent Calculation

     iteration #  1     ecut=    80.00 Ry     beta= 0.40
     Davidson diagonalization with overlap
     ethr =  1.00E-02,  avg # of iterations =  8.2

     negative rho (up, down):  5.465E-06 0.000E+00

     total cpu time spent up to now is        1.9 secs

     total energy              =     -24.12676788 Ry
     estimated scf accuracy    <       0.21489150 Ry

     iteration #  2     ecut=    80.00 Ry     beta= 0.40
     Davidson diagonalization with overlap
     ethr =  2.69E-03,  avg # of iterations =  1.6

     negative rho (up, down):  1.512E-06 0.000E+00

     total cpu time spent up to now is        2.5 secs

     total energy              =     -24.11714124 Ry
     estimated scf accuracy    <       0.03726343 Ry

     iteration #  3     ecut=    80.00 Ry     beta= 0.40
     Davidson diagonalization with overlap
     ethr =  4.66E-04,  avg # of iterations =  4.5

     total cpu time spent up to now is        3.3 secs

     total energy              =     -24.12302935 Ry
     estimated scf accuracy    <       0.00082925 Ry

     iteration #  4     ecut=    80.00 Ry     beta= 0.40
     Davidson diagonalization with overlap
     ethr =  1.04E-05,  avg # of iterations =  5.7

     total cpu time spent up to now is        4.1 secs

     total energy              =     -24.12307962 Ry
     estimated scf accuracy    <       0.00012473 Ry

     iteration #  5     ecut=    80.00 Ry     beta= 0.40
     Davidson diagonalization with overlap
     ethr =  1.56E-06,  avg # of iterations =  2.8

     total cpu time spent up to now is        4.8 secs

     total energy              =     -24.12309483 Ry
     estimated scf accuracy    <       0.00000299 Ry

     iteration #  6     ecut=    80.00 Ry     beta= 0.40
     Davidson diagonalization with overlap
     ethr =  3.73E-08,  avg # of iterations =  2.0

     total cpu time spent up to now is        5.4 secs

     total energy              =     -24.12309563 Ry
     estimated scf accuracy    <       0.00000023 Ry

     iteration #  7     ecut=    80.00 Ry     beta= 0.40
     Davidson diagonalization with overlap
     ethr =  2.89E-09,  avg # of iterations =  1.0

     total cpu time spent up to now is        6.0 secs

     total energy              =     -24.12309566 Ry
     estimated scf accuracy    <          3.3E-09 Ry

     iteration #  8     ecut=    80.00 Ry     beta= 0.40
     Davidson diagonalization with overlap
     ethr =  4.14E-11,  avg # of iterations =  2.2

     total cpu time spent up to now is        6.7 secs

     total energy              =     -24.12309566 Ry
     estimated scf accuracy    <          2.7E-10 Ry

     iteration #  9     ecut=    80.00 Ry     beta= 0.40
     Davidson diagonalization with overlap
     ethr =  3.43E-12,  avg # of iterations =  1.7

     total cpu time spent up to now is        7.3 secs

     End of self-consistent calculation

          k = 0.0000 0.0000 0.0000 (  5299 PWs)   bands (ev):

   -20.7920  -9.1222  -4.4551  -4.4551   1.9297   3.1557   3.9098   6.8082
     6.9514   6.9514   8.0441   9.9253  11.4885  12.7088  14.5421  20.5056
    20.8308  23.1725  27.1347  27.1347

          k = 0.0000 0.0577 0.0000 (  5319 PWs)   bands (ev):

   -20.7331  -9.0509  -4.6926  -4.5840   2.0097   3.2361   3.9910   6.8869
     6.9818   7.2082   8.1276   9.7241  11.5841  12.7813  14.6215  20.5412
    21.0190  23.2512  26.3405  26.5055

          k = 0.0000 0.1155 0.0000 (  5313 PWs)   bands (ev):

   -20.5568  -8.8378  -5.3563  -4.9337   2.2499   3.4773   4.2347   7.0288
     7.1224   7.9395   8.3744   9.1450  11.8896  12.9965  14.8581  20.6013
    21.5259  23.4935  24.6167  25.3741

          k = 0.0000 0.1732 0.0000 (  5301 PWs)   bands (ev):

   -20.2636  -8.4848  -6.3342  -5.4207   2.6503   3.8781   4.6410   7.0171
     7.5092   8.2551   8.7772   9.0529  12.4191  13.3475  15.2486  20.4658
    22.1494  23.1911  23.9150  24.2472

          k = 0.0000 0.2309 0.0000 (  5279 PWs)   bands (ev):

   -19.8548  -7.9959  -7.5092  -5.9600   3.2103   4.4351   5.2091   6.9209
     7.1045   8.0747   9.3338  10.4472  13.1221  13.8189  15.7886  19.7345
    22.2160  22.5661  23.2323  23.8751

          k = 0.0000 0.2887 0.0000 (  5263 PWs)   bands (ev):

   -19.3321  -8.7881  -7.3780  -6.4871   3.9289   5.1124   5.8540   5.9347
     6.7698   8.7683  10.0453  12.0297  13.8691  14.3742  16.4716  18.6145
    20.5763  21.9645  22.3589  22.3931

          k = 0.0000 0.3464 0.0000 (  5268 PWs)   bands (ev):

   -18.6982 -10.1042  -6.9586  -6.6428   4.3867   4.8035   6.0746   6.5427
     6.8797   9.6104  10.9112  13.7099  14.3996  14.9017  17.2803  17.5159
    18.6819  20.2961  20.3677  21.6380

          k = 0.0000 0.4041 0.0000 (  5258 PWs)   bands (ev):

   -17.9570 -11.4104  -7.3468  -5.8137   3.0111   5.8192   6.4221   7.0905
     7.9068  10.5841  11.9283  14.1641  14.9742  15.3794  16.7215  17.0915
    18.1743  18.7394  18.9051  21.0744

          k = 0.0000 0.4619 0.0000 (  5248 PWs)   bands (ev):

   -17.1163 -12.6715  -7.6341  -4.9416   1.7123   6.2456   7.0519   8.2619
     9.1198  11.6503  12.9517  13.0931  14.0514  15.4364  16.2943  16.8826
    17.9472  18.1220  19.2189  20.6706

          k = 0.0000 0.5196 0.0000 (  5234 PWs)   bands (ev):

   -16.1998 -13.8464  -7.8102  -4.1603   0.6625   6.1741   8.3709   9.5632
    10.4925  11.3953  12.2928  13.1393  13.6823  14.3785  15.5295  17.0681
    17.8221  17.9853  19.8521  20.4279

          k = 0.0000-0.5774 0.0000 (  5234 PWs)   bands (ev):

   -15.4973 -14.6361  -7.8694  -3.8020   0.2126   6.1471   9.7906   9.8747
    10.7729  11.2077  12.0107  12.0265  13.7445  14.8347  15.7189  15.7838
    17.6895  18.4022  20.0070  20.3470

          k = 0.0500 0.0866 0.0000 (  5327 PWs)   bands (ev):

   -20.6155  -8.9087  -5.1247  -4.8419   2.1699   3.3970   4.1535   7.0441
     7.0659   7.6515   8.2931   9.3345  11.7905  12.9250  14.7794  20.5874
    21.3667  23.4116  24.8964  25.9662

          k = 0.0500 0.1443 0.0000 (  5295 PWs)   bands (ev):

   -20.3808  -8.6256  -5.9074  -5.2988   2.4903   3.7180   4.4786   7.1716
     7.3570   8.4514   8.6029   8.6195  12.2450  13.2067  15.0928  20.5264
    21.9391  23.3929  23.7455  25.0232

          k = 0.0500 0.2021 0.0000 (  5273 PWs)   bands (ev):

   -20.0298  -8.2045  -6.9507  -5.8458   2.9707   4.1976   4.9662   7.1796
     7.5789   7.8455   9.0959   9.5707  12.9480  13.6139  15.5579  19.9440
    22.4001  22.6264  23.9304  24.2099

          k = 0.0500 0.2598 0.0000 (  5264 PWs)   bands (ev):

   -19.5641  -8.1553  -7.6506  -6.4018   3.6103   4.8279   5.6151   6.3990
     7.0833   8.4531   9.7294  10.9126  13.8150  14.1173  16.1695  18.8674
    21.5787  22.4214  22.8466  23.3432

          k = 0.0500 0.3175 0.0000 (  5261 PWs)   bands (ev):

   -18.9858  -9.4388  -6.9728  -6.9151   4.4077   5.0004   5.6980   6.4152
     6.9397   9.2201  10.5176  12.3510  14.6355  14.6920  16.9175  17.8071
    19.6457  20.9672  21.3800  22.4594

          k = 0.0500 0.3753 0.0000 (  5260 PWs)   bands (ev):

   -18.2982 -10.7417  -7.3530  -6.1874   3.6627   5.3589   6.6112   6.7364
     7.4275  10.1228  11.4588  13.5865  14.9083  15.3356  17.0337  17.7346
    17.9962  19.3242  19.4455  21.4951

          k = 0.0500 0.4330 0.0000 (  5250 PWs)   bands (ev):

   -17.5067 -12.0209  -7.6952  -5.3276   2.3223   6.4012   6.6633   7.7058
     8.5537  11.1332  12.5469  13.5389  14.4627  15.8662  16.5157  16.6062
    18.3455  18.3882  18.8345  20.3592

          k = 0.0500 0.4907 0.0000 (  5250 PWs)   bands (ev):

   -16.6238 -13.2405  -7.9292  -4.4739   1.1267   6.4659   7.7494   8.9373
     9.8466  12.1217  12.2120  13.4416  13.7719  14.5924  15.8028  16.9711
    17.9692  18.1086  19.6697  19.8295

          k = 0.0500 0.5485 0.0000 (  5246 PWs)   bands (ev):

   -15.7145 -14.3214  -8.0479  -3.8456   0.3214   6.4143   9.1404  10.2571
    10.6538  11.2963  11.7320  12.8898  13.4654  15.0735  15.0980  16.4153
    17.4633  18.1775  20.1888  20.3284

          k = 0.1000 0.1732 0.0000 (  5287 PWs)   bands (ev):

   -20.0883  -8.2743  -6.6824  -5.8897   2.8909   4.1183   4.8854   7.4817
     7.7461   7.7707   9.0153   9.0222  12.9360  13.5416  15.4805  19.9303
    22.3967  22.6004  24.1692  24.4211

          k = 0.1000 0.2309 0.0000 (  5262 PWs)   bands (ev):

   -19.6804  -7.7877  -7.6687  -6.5408   3.4512   4.6755   5.4547   6.7206
     7.6821   8.2867   9.5723   9.8126  13.9101  13.9691  16.0169  18.7879
    22.3501  22.6130  23.3730  23.8970

          k = 0.1000 0.2887 0.0000 (  5257 PWs)   bands (ev):

   -19.1590  -8.8210  -7.1726  -7.1403   4.1703   5.3249   5.5814   6.1852
     7.6727   8.9726  10.2792  10.9035  14.4003  15.0017  16.6947  17.7115
    20.7645  21.7400  22.5627  22.9807

          k = 0.1000 0.3464 0.0000 (  5262 PWs)   bands (ev):

   -18.5270 -10.0599  -7.6514  -6.4405   4.2042   5.0460   6.2755   7.0666
     7.5638   9.7907  11.1416  12.1171  14.5919  15.9266  17.1183  17.4954
    18.9105  19.9147  20.5030  22.3582

          k = 0.1000 0.4041 0.0000 (  5259 PWs)   bands (ev):

   -17.7887 -11.3190  -8.0599  -5.6138   2.8888   6.0739   7.2879   7.3868
     8.1544  10.7098  12.1525  13.0902  14.3107  15.9520  16.9552  17.6097
    18.3941  18.4510  19.0836  20.8792

          k = 0.1000 0.4619 0.0000 (  5260 PWs)   bands (ev):

   -16.9522 -12.5505  -8.3574  -4.7412   1.6362   7.1537   7.3688   8.4331
     9.3614  11.6270  12.8658  13.3155  13.7711  15.3565  16.0104  16.4742
    18.3289  18.8791  19.3692  19.5979

          k = 0.1000 0.5196 0.0000 (  5250 PWs)   bands (ev):

   -16.0420 -13.7060  -8.5381  -3.9524   0.6071   7.1658   8.5978   9.6638
    10.7298  11.5510  12.0182  13.3584  13.8761  14.5677  15.2055  16.5352
    17.5615  18.2440  19.9120  20.2513

          k = 0.1000 0.5774 0.0000 (  5246 PWs)   bands (ev):

   -15.3485 -14.4826  -8.5987  -3.5854   0.1580   7.1397   9.9916  10.0906
    10.5975  11.4506  12.2346  12.2598  13.4419  15.0751  15.7092  15.9553
    16.9437  17.9716  20.8028  20.8923

          k = 0.1500 0.2598 0.0000 (  5259 PWs)   bands (ev):

   -19.2169  -8.5008  -7.3377  -7.2394   4.0911   5.3088   5.6822   6.1058
     8.2797   8.8866  10.0470  10.2145  14.3094  15.1171  16.6197  17.6229
    21.6969  22.3394  22.4443  22.8962

          k = 0.1500 0.3175 0.0000 (  5268 PWs)   bands (ev):

   -18.6419  -9.5002  -8.0435  -6.5683   4.5283   4.8886   6.0944   6.9181
     8.5602   9.6140  10.7194  11.0116  14.3589  16.3035  17.0310  17.3526
    20.0051  20.8120  21.3813  21.9216

          k = 0.1500 0.3753 0.0000 (  5262 PWs)   bands (ev):

   -17.9591 -10.6364  -8.5846  -5.7894   3.3104   5.8410   7.0218   7.8853
     8.5365  10.4270  11.7234  11.9760  13.9789  16.7862  17.2006  18.1786
    18.5740  19.0357  19.8189  20.9192

          k = 0.1500 0.4330 0.0000 (  5269 PWs)   bands (ev):

   -17.1746 -11.8219  -8.9755  -4.9330   2.0897   6.9431   8.0702   8.3975
     9.0443  11.2026  12.5808  13.0304  13.6245  15.7648  16.7616  17.3178
    18.3718  19.0676  19.4264  20.0731

          k = 0.1500 0.4907 0.0000 (  5257 PWs)   bands (ev):

   -16.3020 -12.9860  -9.2318  -4.0722   0.9674   8.1416   8.3504   9.1777
    10.3259  11.6593  12.3060  13.6669  14.1750  14.8055  15.4104  16.1848
    18.2852  19.0601  19.4626  19.6844

          k = 0.1500 0.5485 0.0000 (  5241 PWs)   bands (ev):

   -15.4091 -14.0309  -9.3591  -3.4200   0.1786   8.2308   9.5752  10.1020
    11.0200  11.7508  11.7636  13.3159  13.4250  15.2235  15.3330  16.2020
    17.0456  18.0389  19.7164  20.3038

          k = 0.2000 0.3464 0.0000 (  5265 PWs)   bands (ev):

   -18.0160 -10.2589  -8.9177  -5.8485   3.4704   5.7625   6.9285   7.8114
     9.4397  10.3258  10.7566  11.8594  13.8342  17.2159  17.3206  18.0955
    19.1173  19.7021  19.8310  21.0243

          k = 0.2000 0.4041 0.0000 (  5271 PWs)   bands (ev):

   -17.2867 -11.1911  -9.5721  -5.0327   2.3655   6.7880   7.8744   8.8606
     9.7198  10.9541  11.4507  12.8607  13.4266  16.8061  17.6539  18.2085
    18.3590  18.6896  19.1124  20.0233

          k = 0.2000 0.4619 0.0000 (  5263 PWs)   bands (ev):

   -16.4633 -12.2523  -9.9817  -4.1611   1.2701   7.9565   8.8414   9.6273
    10.0934  11.2770  12.2035  13.6862  13.9709  15.4064  16.2750  16.9267
    18.0842  18.7973  19.1104  19.6099

          k = 0.2000 0.5196 0.0000 (  5244 PWs)   bands (ev):

   -15.5730 -13.3189 -10.2067  -3.3448   0.3111   9.2354   9.5642   9.5711
    11.4343  11.6362  11.8787  14.0568  14.3259  15.0813  15.2299  15.9812
    17.7879  17.9119  18.8286  19.2039

          k = 0.2000 0.5774 0.0000 (  5238 PWs)   bands (ev):

   -14.9028 -14.0525 -10.2791  -2.9392  -0.1436   9.5098   9.7825  10.5581
    10.7155  12.1781  12.8816  12.9481  13.3795  15.4693  15.7944  16.3499
    16.7897  17.8571  17.9699  19.2157

          k = 0.2500 0.4330 0.0000 (  5299 PWs)   bands (ev):

   -16.5178 -11.8216 -10.4233  -4.1935   1.3896   7.8791   8.7171   9.9863
    10.8161  11.1308  11.3292  13.6451  13.9012  16.4393  16.6540  17.1939
    17.9617  18.3071  18.3923  19.3488

          k = 0.2500 0.4907 0.0000 (  5253 PWs)   bands (ev):

   -15.6685 -12.6469 -10.9484  -3.3222   0.4282   9.0959   9.2361  10.8835
    11.2857  11.4714  11.9197  14.4614  14.8745  15.2095  15.8057  16.3047
    16.6383  17.4842  18.0819  19.2319

          k = 0.2500 0.5485 0.0000 (  5252 PWs)   bands (ev):

   -14.8074 -13.5447 -11.1696  -2.5922  -0.3474   9.3277  10.3747  10.8276
    11.5942  12.3916  12.6793  14.0385  14.0613  15.3670  15.8788  16.0314
    16.4533  16.9359  17.9506  18.2282

          k = 0.3000 0.5196 0.0000 (  5243 PWs)   bands (ev):

   -14.8220 -13.1312 -11.6685  -2.4633  -0.4182   9.1460  10.3076  11.6421
    11.8419  12.3789  12.6178  14.8176  14.8957  15.0660  15.3304  15.8224
    16.3730  16.5774  16.6823  18.6365

          k = 0.3000 0.5774 0.0000 (  5236 PWs)   bands (ev):

   -14.1621 -13.6641 -11.9175  -1.8756  -0.9992   9.0569  11.2988  11.4209
    11.8393  13.3863  13.7984  13.9973  14.0580  14.8154  15.3376  15.5136
    16.1208  16.8699  16.9865  17.8250

     the Fermi energy is    -1.4374 ev

!    total energy              =     -24.12309566 Ry
     estimated scf accuracy    <          2.6E-11 Ry
     smearing contrib. (-TS)   =      -0.00002532 Ry
     internal energy E=F+TS    =     -24.12307034 Ry

     The total energy is F=E-TS. E is the sum of the following terms:
     one-electron contribution =    -121.54868345 Ry
     hartree contribution      =      62.37494002 Ry
     xc contribution           =      -8.54496416 Ry
     ewald contribution        =      43.59563726 Ry

     convergence has been achieved in   9 iterations

     Forces acting on atoms (cartesian axes, Ry/au):

     atom    1 type  1   force =     0.00000000    0.00000000    0.00000000
     atom    2 type  1   force =     0.00000000   -0.00000000    0.00000000

     Total force =     0.000000     Total SCF correction =     0.000000

     Writing all to output data dir ./graphene.save/
 
     init_run     :      0.25s CPU      0.33s WALL (       1 calls)
     electrons    :      6.74s CPU      6.89s WALL (       1 calls)
     forces       :      0.05s CPU      0.05s WALL (       1 calls)

     Called by init_run:
     wfcinit      :      0.21s CPU      0.24s WALL (       1 calls)
     potinit      :      0.01s CPU      0.01s WALL (       1 calls)
     hinit0       :      0.01s CPU      0.06s WALL (       1 calls)

     Called by electrons:
     c_bands      :      5.80s CPU      5.93s WALL (       9 calls)
     sum_band     :      0.92s CPU      0.94s WALL (       9 calls)
     v_of_rho     :      0.00s CPU      0.01s WALL (      10 calls)
     mix_rho      :      0.01s CPU      0.01s WALL (       9 calls)

     Called by c_bands:
     init_us_2    :      0.03s CPU      0.03s WALL (     880 calls)
     init_us_2:cp :      0.03s CPU      0.03s WALL (     880 calls)
     cegterg      :      5.69s CPU      5.82s WALL (     396 calls)

     Called by *egterg:
     cdiaghg      :      0.65s CPU      0.68s WALL (    1706 calls)
     h_psi        :      4.68s CPU      4.79s WALL (    1750 calls)
     g_psi        :      0.01s CPU      0.02s WALL (    1310 calls)

     Called by h_psi:
     h_psi:calbec :      0.08s CPU      0.09s WALL (    1750 calls)
     vloc_psi     :      4.53s CPU      4.63s WALL (    1750 calls)
     add_vuspsi   :      0.05s CPU      0.05s WALL (    1750 calls)

     General routines
     calbec       :      0.10s CPU      0.11s WALL (    1926 calls)
     fft          :      0.00s CPU      0.05s WALL (      33 calls)
     ffts         :      0.00s CPU      0.00s WALL (       9 calls)
     fftw         :      5.15s CPU      5.26s WALL (   49954 calls)
 
     Parallel routines
 
     PWSCF        :      7.19s CPU      7.52s WALL

 
   This run was terminated on:  20:18: 6  22Mar2025            

=------------------------------------------------------------------------------=
   JOB DONE.
=------------------------------------------------------------------------------=
