
     Program PWSCF v.7.1 starts on 22Mar2025 at 20:18:30 

     This program is part of the open-source Quantum ESPRESSO suite
     for quantum simulation of materials; please cite
         "P. Giannozzi et al., J. Phys.:Condens. Matter 21 395502 (2009);
         "P. Giannozzi et al., J. Phys.:Condens. Matter 29 465901 (2017);
         "P. Giannozzi et al., J. Chem. Phys. 152 154105 (2020);
          URL http://www.quantum-espresso.org", 
     in publications or presentations arising from this work. More details at
     http://www.quantum-espresso.org/quote

     Parallel version (MPI), running on    24 processors

     MPI processes distributed on     1 nodes
     241829 MiB available memory on the printing compute node when the environment starts
 
     Reading input from graphene.band.in
     Message from routine read_cards :
     DEPRECATED: no units specified in ATOMIC_POSITIONS card
     Message from routine read_cards :
     ATOMIC_POSITIONS: units set to alat

     Current dimensions of program PWSCF are:
     Max number of different atomic species (ntypx) = 10
     Max number of k-points (npk) =  40000
     Max angular momentum in pseudopotentials (lmaxx) =  4
 
     R & G space division:  proc/nbgrp/npool/nimage =      24
     Subspace diagonalization in iterative solution of the eigenvalue problem:
     a serial algorithm will be used

 
     Parallelization info
     --------------------
     sticks:   dense  smooth     PW     G-vecs:    dense   smooth      PW
     Min          19      19      6                 1737     1737     292
     Max          20      20      7                 1758     1758     306
     Sum         475     475    151                42043    42043    7099
 
     Using Slab Decomposition
 


     bravais-lattice index     =            4
     lattice parameter (alat)  =       4.6510  a.u.
     unit-cell volume          =     435.6519 (a.u.)^3
     number of atoms/cell      =            2
     number of atomic types    =            1
     number of electrons       =         8.00
     number of Kohn-Sham states=           20
     kinetic-energy cutoff     =      80.0000  Ry
     charge density cutoff     =     320.0000  Ry
     scf convergence threshold =      1.0E-10
     mixing beta               =       0.4000
     number of iterations used =            8  plain     mixing
     Exchange-correlation= SLA  PW   NOGX NOGC
                           (   1   4   0   0   0   0   0)

     celldm(1)=   4.651000  celldm(2)=   0.000000  celldm(3)=   5.000000
     celldm(4)=   0.000000  celldm(5)=   0.000000  celldm(6)=   0.000000

     crystal axes: (cart. coord. in units of alat)
               a(1) = (   1.000000   0.000000   0.000000 )  
               a(2) = (  -0.500000   0.866025   0.000000 )  
               a(3) = (   0.000000   0.000000   5.000000 )  

     reciprocal axes: (cart. coord. in units 2 pi/alat)
               b(1) = (  1.000000  0.577350  0.000000 )  
               b(2) = (  0.000000  1.154701  0.000000 )  
               b(3) = (  0.000000  0.000000  0.200000 )  


     PseudoPot. # 1 for C  read from file:
     ./C.UPF
     MD5 check sum: c9bd9c91d9c48f3c1b9c51e450525728
     Pseudo is Norm-conserving + core correction, Zval =  4.0
     Generated using ONCVPSP code by D. R. Hamann
     Using radial grid of 1234 points,  4 beta functions with: 
                l(1) =   0
                l(2) =   0
                l(3) =   1
                l(4) =   1

     atomic species   valence    mass     pseudopotential
        C              4.00    12.01070     C ( 1.00)

     24 Sym. Ops., with inversion, found



   Cartesian axes

     site n.     atom                  positions (alat units)
         1           C   tau(   1) = (   0.5000000  -0.2886751   0.0000000  )
         2           C   tau(   2) = (   0.5000000   0.2886751   0.0000000  )

     number of k points=   200  Gaussian smearing, width (Ry)=  0.0200

     Number of k-points >= 100: set verbosity='high' to print them.

     Dense  grid:    42043 G-vectors     FFT dimensions: (  27,  27, 135)

     Estimated max dynamical RAM per process >      15.27 MB

     Estimated total dynamical RAM >     366.57 MB

     Initial potential from superposition of free atoms

     starting charge       7.9999, renormalised to       8.0000

     negative rho (up, down):  1.000E-05 0.000E+00
     Starting wfcs are    8 randomized atomic wfcs +   12 random wfcs

     total cpu time spent up to now is        1.2 secs

     Self-consistent Calculation

     iteration #  1     ecut=    80.00 Ry     beta= 0.40
     Davidson diagonalization with overlap
     ethr =  1.00E-02,  avg # of iterations =  8.2

     negative rho (up, down):  5.436E-06 0.000E+00

     total cpu time spent up to now is        8.1 secs

     total energy              =     -24.03959781 Ry
     estimated scf accuracy    <       0.23525467 Ry

     iteration #  2     ecut=    80.00 Ry     beta= 0.40
     Davidson diagonalization with overlap
     ethr =  2.94E-03,  avg # of iterations =  1.6

     negative rho (up, down):  1.440E-06 0.000E+00

     total cpu time spent up to now is       10.8 secs

     total energy              =     -24.02802522 Ry
     estimated scf accuracy    <       0.04206842 Ry

     iteration #  3     ecut=    80.00 Ry     beta= 0.40
     Davidson diagonalization with overlap
     ethr =  5.26E-04,  avg # of iterations =  3.6

     total cpu time spent up to now is       14.0 secs

     total energy              =     -24.03448215 Ry
     estimated scf accuracy    <       0.00100908 Ry

     iteration #  4     ecut=    80.00 Ry     beta= 0.40
     Davidson diagonalization with overlap
     c_bands:  1 eigenvalues not converged
     ethr =  1.26E-05,  avg # of iterations =  5.8

     total cpu time spent up to now is       17.8 secs

     total energy              =     -24.03453934 Ry
     estimated scf accuracy    <       0.00013903 Ry

     iteration #  5     ecut=    80.00 Ry     beta= 0.40
     Davidson diagonalization with overlap
     ethr =  1.74E-06,  avg # of iterations =  3.5

     total cpu time spent up to now is       20.9 secs

     total energy              =     -24.03455805 Ry
     estimated scf accuracy    <       0.00000247 Ry

     iteration #  6     ecut=    80.00 Ry     beta= 0.40
     Davidson diagonalization with overlap
     ethr =  3.08E-08,  avg # of iterations =  2.0

     total cpu time spent up to now is       23.9 secs

     total energy              =     -24.03455871 Ry
     estimated scf accuracy    <       0.00000026 Ry

     iteration #  7     ecut=    80.00 Ry     beta= 0.40
     Davidson diagonalization with overlap
     ethr =  3.21E-09,  avg # of iterations =  1.0

     total cpu time spent up to now is       26.5 secs

     total energy              =     -24.03455873 Ry
     estimated scf accuracy    <       0.00000001 Ry

     iteration #  8     ecut=    80.00 Ry     beta= 0.40
     Davidson diagonalization with overlap
     ethr =  1.82E-10,  avg # of iterations =  2.0

     total cpu time spent up to now is       29.4 secs

     total energy              =     -24.03455873 Ry
     estimated scf accuracy    <          3.6E-10 Ry

     iteration #  9     ecut=    80.00 Ry     beta= 0.40
     Davidson diagonalization with overlap
     ethr =  4.45E-12,  avg # of iterations =  2.1

     total cpu time spent up to now is       32.3 secs

     End of self-consistent calculation

     Number of k-points >= 100: set verbosity='high' to print the bands.

     the Fermi energy is    -1.3814 ev

!    total energy              =     -24.03455873 Ry
     estimated scf accuracy    <          3.2E-11 Ry
     smearing contrib. (-TS)   =      -0.00049280 Ry
     internal energy E=F+TS    =     -24.03406593 Ry

     The total energy is F=E-TS. E is the sum of the following terms:
     one-electron contribution =    -121.48760636 Ry
     hartree contribution      =      62.42147705 Ry
     xc contribution           =      -8.56357387 Ry
     ewald contribution        =      43.59563726 Ry

     convergence has been achieved in   9 iterations

     Forces acting on atoms (cartesian axes, Ry/au):

     atom    1 type  1   force =     0.00000000    0.00000000    0.00000000
     atom    2 type  1   force =     0.00000000   -0.00000000    0.00000000

     Total force =     0.000000     Total SCF correction =     0.000000

     Writing all to output data dir ./graphene.save/
 
     init_run     :      1.01s CPU      1.11s WALL (       1 calls)
     electrons    :     30.47s CPU     31.15s WALL (       1 calls)
     forces       :      0.09s CPU      0.09s WALL (       1 calls)

     Called by init_run:
     wfcinit      :      0.98s CPU      1.03s WALL (       1 calls)
     potinit      :      0.01s CPU      0.01s WALL (       1 calls)
     hinit0       :      0.01s CPU      0.05s WALL (       1 calls)

     Called by electrons:
     c_bands      :     26.25s CPU     26.84s WALL (       9 calls)
     sum_band     :      4.21s CPU      4.29s WALL (       9 calls)
     v_of_rho     :      0.00s CPU      0.01s WALL (      10 calls)
     mix_rho      :      0.00s CPU      0.01s WALL (       9 calls)

     Called by c_bands:
     init_us_2    :      0.15s CPU      0.16s WALL (    4000 calls)
     init_us_2:cp :      0.15s CPU      0.15s WALL (    4000 calls)
     cegterg      :     25.76s CPU     26.32s WALL (    1800 calls)

     Called by *egterg:
     cdiaghg      :      2.92s CPU      2.96s WALL (    7747 calls)
     h_psi        :     21.23s CPU     21.75s WALL (    7947 calls)
     g_psi        :      0.07s CPU      0.08s WALL (    5947 calls)

     Called by h_psi:
     h_psi:calbec :      0.41s CPU      0.42s WALL (    7947 calls)
     vloc_psi     :     20.50s CPU     21.01s WALL (    7947 calls)
     add_vuspsi   :      0.24s CPU      0.25s WALL (    7947 calls)

     General routines
     calbec       :      0.44s CPU      0.45s WALL (    8747 calls)
     fft          :      0.00s CPU      0.04s WALL (      33 calls)
     ffts         :      0.00s CPU      0.00s WALL (       9 calls)
     fftw         :     23.41s CPU     23.97s WALL (  226544 calls)
 
     Parallel routines
 
     PWSCF        :     32.17s CPU     33.16s WALL

 
   This run was terminated on:  20:19: 3  22Mar2025            

=------------------------------------------------------------------------------=
   JOB DONE.
=------------------------------------------------------------------------------=
